HEADER
"PSFversion" "1.00"
"Log Generator" "drlLog rev. 1.0"
"Log Time Stamp" "Tue Apr 19 23:11:56 2022"
"psfversion" ""
"simulator" "spectre"
"version" "20.1.0.073.isr1"
"date" "11:11:56 PM, Tue Apr 19, 2022"
"design" "//"
"signalNameType" "spectre"
"simMode" "Spectre"
"measdgt" 0
"ingold" 2
"sst2usecolon" 0
